#     Step Nr.          Time[fs]        Kin.[a.u.]          Temp[K]            Pot.[a.u.]        Cons Qty[a.u.]        UsedTime[s]
         0            0.000000         0.519465290       285.524750217     -2210.627708006     -2210.108242717         0.000000000
         1            1.000000         0.508083401       279.268680690     -2210.616348123     -2210.108264722        20.291575761
         2            2.000000         0.497325542       273.355609717     -2210.603570367     -2210.106244825         1.423774235
         3            3.000000         0.508684254       279.598940217     -2210.616696287     -2210.108012033         0.156903525
         4            4.000000         0.524681943       288.392090338     -2210.634859894     -2210.110177951         0.579002660
         5            5.000000         0.520660093       286.181475242     -2210.629350976     -2210.108690883         0.163946196
         6            6.000000         0.510718313       280.716963420     -2210.618279779     -2210.107561466         0.159040823
         7            7.000000         0.510934148       280.835597363     -2210.619066940     -2210.108132792         0.159071189
         8            8.000000         0.516458206       283.871903052     -2210.625424934     -2210.108966728         0.156409523
         9            9.000000         0.517222403       284.291944678     -2210.626411333     -2210.109188930         0.157090783
        10           10.000000         0.511637665       281.222286098     -2210.620488493     -2210.108850828         0.157149255
        11           11.000000         0.507797870       279.111738181     -2210.616061022     -2210.108263152         0.157514240
        12           12.000000         0.513007665       281.975308706     -2210.621932993     -2210.108925328         0.157755332
        13           13.000000         0.520855227       286.288730966     -2210.629988705     -2210.109133478         0.157288939
        14           14.000000         0.525417641       288.796467581     -2210.634357624     -2210.108939983         0.155457260
        15           15.000000         0.525944933       289.086294434     -2210.634704789     -2210.108759855         0.155006931
        16           16.000000         0.523541553       287.765273281     -2210.631778382     -2210.108236830         0.155567687
        17           17.000000         0.520922153       286.325517131     -2210.629386889     -2210.108464736         0.156056409
        18           18.000000         0.515067921       283.107730682     -2210.623662718     -2210.108594798         0.157454429
        19           19.000000         0.506029763       278.139895902     -2210.613869743     -2210.107839980         0.158822100
        20           20.000000         0.505089236       277.622933995     -2210.612883654     -2210.107794418         0.154863092
        21           21.000000         0.510942718       280.840307775     -2210.620985771     -2210.110043053         0.169057958
        22           22.000000         0.503796666       276.912471428     -2210.613021564     -2210.109224898         0.155604143
        23           23.000000         0.492570670       270.742088824     -2210.600343969     -2210.107773299         0.156278459
        24           24.000000         0.495101115       272.132950979     -2210.603954235     -2210.108853120         0.157794214
        25           25.000000         0.503009726       276.479929081     -2210.612419916     -2210.109410189         0.157637117
        26           26.000000         0.506050868       278.151496147     -2210.615645763     -2210.109594896         0.162440760
        27           27.000000         0.499692043       274.656360287     -2210.609325825     -2210.109633782         0.161547899
        28           28.000000         0.487676763       268.052146535     -2210.595573632     -2210.107896869         0.158064241
        29           29.000000         0.490116164       269.392966492     -2210.597889874     -2210.107773710         0.159228043
        30           30.000000         0.506428837       278.359247423     -2210.616599854     -2210.110171017         0.155383819
        31           31.000000         0.510601781       280.652911627     -2210.620583448     -2210.109981666         0.153362793
        32           32.000000         0.502363440       276.124697088     -2210.610814456     -2210.108451015         0.153812990
        33           33.000000         0.500418906       275.055881148     -2210.608840791     -2210.108421886         0.158081621
        34           34.000000         0.508147892       279.304128091     -2210.616935401     -2210.108787510         0.155877145
        35           35.000000         0.519640498       285.621053681     -2210.628508374     -2210.108867875         0.151892076
        36           36.000000         0.527356624       289.862231812     -2210.636946276     -2210.109589653         0.153785230
        37           37.000000         0.522891125       287.407764816     -2210.631313110     -2210.108421985         0.151660962
        38           38.000000         0.517801501       284.610246320     -2210.625039671     -2210.107238171         0.154017493
        39           39.000000         0.523713613       287.859846247     -2210.631882634     -2210.108169021         0.153349520
        40           40.000000         0.531363159       292.064428838     -2210.639838469     -2210.108475310         0.152386361
        41           41.000000         0.535360012       294.261304464     -2210.643612610     -2210.108252598         0.164065875
        42           42.000000         0.538672022       296.081754935     -2210.647244667     -2210.108572644         0.153974456
        43           43.000000         0.539699456       296.646484850     -2210.648790725     -2210.109091270         0.154544501
        44           44.000000         0.536092784       294.664073414     -2210.644584125     -2210.108491340         0.153786966
        45           45.000000         0.534072275       293.553497746     -2210.642530673     -2210.108458398         0.154747556
        46           46.000000         0.533386353       293.176479992     -2210.642368787     -2210.108982434         0.152880852
        47           47.000000         0.526866547       289.592860275     -2210.635451282     -2210.108584735         0.154926733
        48           48.000000         0.517730988       284.571488774     -2210.625217081     -2210.107486094         0.158822006
        49           49.000000         0.517567478       284.481615382     -2210.625022657     -2210.107455180         0.154345531
        50           50.000000         0.527114478       289.729135990     -2210.635513014     -2210.108398536         0.153180508
        51           51.000000         0.535930229       294.574724722     -2210.644968690     -2210.109038461         0.158883365
        52           52.000000         0.535020273       294.074566526     -2210.644719943     -2210.109699669         0.153647970
        53           53.000000         0.521669036       286.736042115     -2210.630231549     -2210.108562513         0.154353508
        54           54.000000         0.511339341       281.058311975     -2210.618909465     -2210.107570124         0.163752972
        55           55.000000         0.514034019       282.539445582     -2210.622871468     -2210.108837448         0.163206195
        56           56.000000         0.512390448       281.636054417     -2210.621991672     -2210.109601224         0.154429224
        57           57.000000         0.493499068       271.252383848     -2210.601204027     -2210.107704959         0.158013955
        58           58.000000         0.476849509       262.100932441     -2210.582468383     -2210.105618874         0.153943043
        59           59.000000         0.484439872       266.272984966     -2210.591162299     -2210.106722428         0.152800814
        60           60.000000         0.503577598       276.792060533     -2210.612238233     -2210.108660635         0.154158949
        61           61.000000         0.509705050       280.160022104     -2210.618913893     -2210.109208843         0.167222105
        62           62.000000         0.499329030       274.456829603     -2210.607299511     -2210.107970481         0.153999624
        63           63.000000         0.493621971       271.319937764     -2210.600483413     -2210.106861441         0.155074587
        64           64.000000         0.507590396       278.997699983     -2210.616107153     -2210.108516757         0.157959666
        65           65.000000         0.520372223       286.023247324     -2210.630781696     -2210.110409473         0.154212635
        66           66.000000         0.508177667       279.320493857     -2210.616685396     -2210.108507729         0.167685538
        67           67.000000         0.490097582       269.382752600     -2210.595934942     -2210.105837360         0.156896016
        68           68.000000         0.496910582       273.127526620     -2210.603022950     -2210.106112368         0.153779449
        69           69.000000         0.524408889       288.242005872     -2210.632512174     -2210.108103285         0.158437716
        70           70.000000         0.544669363       299.378200509     -2210.653734041     -2210.109064678         0.154079210
        71           71.000000         0.544197830       299.119022275     -2210.652043472     -2210.107845642         0.153772473
        72           72.000000         0.539661380       296.625556491     -2210.645755900     -2210.106094520         0.159389678
        73           73.000000         0.551291527       303.018081685     -2210.658286174     -2210.106994647         0.156342829
        74           74.000000         0.565154932       310.638119713     -2210.674247397     -2210.109092464         0.150879403
        75           75.000000         0.553493628       304.228468945     -2210.661457593     -2210.107963965         0.152387278
        76           76.000000         0.525157220       288.653326685     -2210.630362681     -2210.105205461         0.152633234
        77           77.000000         0.512073626       281.461912662     -2210.616361783     -2210.104288157         0.152889239
        78           78.000000         0.524417347       288.246654439     -2210.630200609     -2210.105783263         0.152937704
        79           79.000000         0.539455454       296.512369300     -2210.647315818     -2210.107860364         0.154212067
        80           80.000000         0.531949889       292.386926008     -2210.638998422     -2210.107048533         0.159266770
        81           81.000000         0.512811037       281.867231811     -2210.617808508     -2210.104997471         0.167891579
        82           82.000000         0.510718743       280.717199532     -2210.615627208     -2210.104908466         0.155193491
        83           83.000000         0.526939508       289.632963699     -2210.634234161     -2210.107294653         0.154962701
        84           84.000000         0.530828749       291.770689832     -2210.639257850     -2210.108429101         0.267694974
        85           85.000000         0.506954414       278.648131356     -2210.613143824     -2210.106189410         0.160258353
        86           86.000000         0.482524114       265.219986446     -2210.586190109     -2210.103665995         0.163717296
        87           87.000000         0.487586286       268.002415395     -2210.592144445     -2210.104558160         0.159671641
        88           88.000000         0.510957794       280.848594573     -2210.617867406     -2210.106909612         0.153398446
        89           89.000000         0.520848430       286.284994876     -2210.628356941     -2210.107508511         0.154009453
        90           90.000000         0.510782188       280.752072400     -2210.616324946     -2210.105542758         0.152988724
        91           91.000000         0.506645202       278.478172533     -2210.611197722     -2210.104552520         0.151838653
        92           92.000000         0.522204447       287.030331167     -2210.628389948     -2210.106185502         0.153441752
        93           93.000000         0.537331972       295.345194738     -2210.644965211     -2210.107633238         0.153825702
        94           94.000000         0.529887134       291.253130122     -2210.637035404     -2210.107148270         0.152975883
        95           95.000000         0.505627858       277.918988565     -2210.610277845     -2210.104649987         0.152175139
        96           96.000000         0.494058971       271.560135216     -2210.597578187     -2210.103519216         0.154071473
        97           97.000000         0.508176688       279.319955977     -2210.612949082     -2210.104772394         0.153846551
        98           98.000000         0.530006495       291.318737102     -2210.636246669     -2210.106240174         0.154341221
        99           99.000000         0.538244736       295.846896455     -2210.644390849     -2210.106146113         0.217366425
       100          100.000000         0.534249154       293.650719557     -2210.639133526     -2210.104884373         0.155417472
