     384
 i =        0, time =        0.000, E =     -2210.6277080064
  O         0.0113691938       -0.0018826596        0.0225002844
  H        -0.0309851190       -0.0019541532       -0.0236568947
  H         0.0242133454       -0.0002397202        0.0027890384
  O         0.0057419875       -0.0045206932        0.0194748607
  H        -0.0062476441        0.0074491697       -0.0160326417
  H         0.0025427295       -0.0081221015       -0.0109019504
  O         0.0095523914        0.0065025257        0.0038057555
  H        -0.0086262893       -0.0029393012       -0.0015614055
  H        -0.0019727258        0.0002545151       -0.0048961084
  O         0.0020547816        0.0111561109        0.0259333585
  H        -0.0035239902       -0.0038816712       -0.0229133366
  H         0.0039143289       -0.0017626624        0.0005409740
  O        -0.0067832292       -0.0112825701       -0.0193159041
  H         0.0038841906        0.0004720536        0.0050111033
  H        -0.0026000784        0.0106813951        0.0145866521
  O         0.0001496998       -0.0108429970        0.0017395818
  H         0.0000881502        0.0097092954       -0.0070756413
  H         0.0029534941       -0.0013065033       -0.0019058899
  O         0.0079928490        0.0075913201        0.0128489191
  H        -0.0055733472       -0.0017408059       -0.0018973969
  H        -0.0011568308       -0.0041579273       -0.0072174858
  O         0.0324022405        0.0170917544       -0.0115359404
  H        -0.0198190805       -0.0248087211        0.0003406870
  H         0.0008133423        0.0029696196        0.0167320216
  O        -0.0119920211       -0.0125813265        0.0046778669
  H         0.0079443647        0.0111147137       -0.0036328379
  H         0.0021731745        0.0041140455        0.0084946989
  O        -0.0048919255        0.0233996286       -0.0051117863
  H         0.0003722070       -0.0052397326       -0.0047138560
  H         0.0017470477       -0.0143009968        0.0046986756
  O        -0.0135128981       -0.0023370852       -0.0064764596
  H         0.0073804291        0.0033258710        0.0028796835
  H         0.0030455690       -0.0057639717        0.0063060751
  O        -0.0096026871       -0.0025915506        0.0057197320
  H        -0.0081710563       -0.0082663637       -0.0001204374
  H         0.0153286120        0.0107693790       -0.0011530326
  O         0.0266522081        0.0152663767        0.0268067637
  H        -0.0240427937       -0.0004529042        0.0025403167
  H        -0.0052264710       -0.0117007035       -0.0209602216
  O        -0.0274912256       -0.0037523925       -0.0057039693
  H         0.0173934244        0.0000291421       -0.0116753865
  H         0.0099661404        0.0035480051        0.0174968498
  O        -0.0060621256        0.0163936507        0.0012853348
  H        -0.0159899366       -0.0003826525       -0.0052340254
  H         0.0106973782       -0.0107144517       -0.0024537436
  O        -0.0038362205        0.0194579732       -0.0043650803
  H        -0.0008552599       -0.0142579915       -0.0011724240
  H        -0.0010152811       -0.0082600392        0.0121888990
  O         0.0093609215       -0.0014660706        0.0099701548
  H        -0.0096454818       -0.0049960812       -0.0033414415
  H         0.0003710514        0.0069055565        0.0022207423
  O        -0.0064635874        0.0108742555        0.0241889588
  H         0.0097317806        0.0008091951       -0.0104076724
  H        -0.0073350829       -0.0074606588       -0.0163286339
  O        -0.0089943517       -0.0260726258        0.0173641668
  H         0.0028313175       -0.0014864973        0.0086624309
  H         0.0018469543        0.0236202918       -0.0256296047
  O         0.0500098972        0.0013700055        0.0063875153
  H        -0.0127727229        0.0097849167        0.0021486639
  H        -0.0356131668       -0.0130092876       -0.0143000191
  O        -0.0038629564        0.0025435688       -0.0021539360
  H        -0.0075277249        0.0051326763       -0.0156500983
  H         0.0136119181       -0.0068703064        0.0288605650
  O        -0.0113320037        0.0184016628        0.0169671955
  H         0.0089459421       -0.0044866698       -0.0092446089
  H         0.0020018657       -0.0118426184       -0.0097630680
  O        -0.0037527010        0.0140066292       -0.0266589886
  H        -0.0012292533       -0.0098406894        0.0324723493
  H        -0.0006972584        0.0032343749       -0.0099039359
  O        -0.0056007344        0.0047408663       -0.0090909892
  H         0.0015579288        0.0027571871        0.0069628360
  H        -0.0030242413       -0.0091833461        0.0053785627
  O         0.0091728188        0.0080501435       -0.0369092684
  H        -0.0165503717       -0.0039319925        0.0420817117
  H         0.0105867053       -0.0046029374       -0.0045641320
  O        -0.0192098922       -0.0189352769       -0.0015978749
  H         0.0216793426        0.0211857163       -0.0099029734
  H        -0.0068760213       -0.0003604065        0.0004549556
  O        -0.0111004699       -0.0223326979       -0.0169782655
  H        -0.0029458376        0.0168526168        0.0058760475
  H         0.0141337649        0.0036952383        0.0075109974
  O         0.0132317613        0.0065092299        0.0042223725
  H        -0.0023611893        0.0039193190       -0.0024498262
  H        -0.0088434499       -0.0065352359       -0.0047236628
  O        -0.0135811098       -0.0116397722        0.0514474795
  H        -0.0066325453        0.0115459306       -0.0005648579
  H         0.0198735297       -0.0022981757       -0.0458073159
  O         0.0129368604       -0.0140227842        0.0205836698
  H        -0.0085101362       -0.0002625192       -0.0184344019
  H        -0.0002301055        0.0089109194       -0.0059398062
  O         0.0129947926       -0.0116759073       -0.0102903202
  H        -0.0074034619        0.0018559733        0.0072080711
  H        -0.0023613340        0.0064149640        0.0069914098
  O         0.0004870935       -0.0000012147        0.0347621574
  H        -0.0043352489        0.0070031194       -0.0112688063
  H         0.0054527312       -0.0055713725       -0.0214532435
  O         0.0242836649        0.0122981320       -0.0030702747
  H        -0.0049052500        0.0021984914        0.0034733674
  H        -0.0161982081       -0.0162844089       -0.0011412736
  O        -0.0120439243        0.0272641984        0.0460993277
  H        -0.0000398471       -0.0383886533       -0.0235890549
  H         0.0061459430        0.0101770521       -0.0217793998
  O        -0.0200869444        0.0125416298        0.0306741250
  H         0.0091743302       -0.0272157416       -0.0139495846
  H         0.0070986871        0.0140658862       -0.0028161608
  O        -0.0100854154       -0.0018526183        0.0318625318
  H         0.0013647608        0.0038315245       -0.0058637719
  H         0.0044267211        0.0016287351       -0.0261972442
  O        -0.0056902756        0.0070290217        0.0002941259
  H         0.0043534119        0.0064934246       -0.0087009051
  H         0.0010368965       -0.0128067178        0.0027530608
  O         0.0313101332       -0.0038273282        0.0048985306
  H        -0.0195745595       -0.0028355430       -0.0180373603
  H        -0.0112308379        0.0055719307        0.0140690117
  O        -0.0155776236       -0.0039280818        0.0398621783
  H         0.0038610543        0.0188175843       -0.0216416420
  H         0.0128219667       -0.0125797415       -0.0135572835
  O         0.0198128838        0.0118770908       -0.0091518857
  H        -0.0022201607       -0.0015285112       -0.0049300654
  H        -0.0185792563       -0.0100574512        0.0124294182
  O         0.0126575675       -0.0147967078        0.0215134461
  H        -0.0014400264       -0.0121703851        0.0017529665
  H        -0.0112702328        0.0222135405       -0.0213479177
  O        -0.0084985784        0.0142385284       -0.0283069274
  H        -0.0028825571       -0.0005468027       -0.0000212605
  H         0.0064551181       -0.0110311069        0.0216313136
  O         0.0082657731       -0.0000513706        0.0058798487
  H        -0.0004332740       -0.0057604888        0.0061600390
  H        -0.0065431580       -0.0002863301       -0.0107814249
  O         0.0135746612       -0.0060165939        0.0121411466
  H        -0.0112260418        0.0037645003       -0.0040357698
  H        -0.0064574159        0.0075867875       -0.0070533242
  O        -0.0040925581        0.0043494793       -0.0230364369
  H        -0.0079365248       -0.0077232127        0.0024718619
  H         0.0074535802       -0.0062504061        0.0135037461
  O        -0.0216710626       -0.0262299692        0.0103601020
  H         0.0076156214        0.0118743649       -0.0195311703
  H         0.0134858350        0.0134598040        0.0095686792
  O        -0.0013360355        0.0031027972       -0.0002161441
  H         0.0045728976       -0.0004499391        0.0018972672
  H        -0.0049086189       -0.0060838285       -0.0026666831
  O         0.0079690991        0.0144997115        0.0329730160
  H        -0.0236483184       -0.0068061279       -0.0087625204
  H         0.0012037569       -0.0042951530       -0.0119991539
  O         0.0254049442       -0.0043838074        0.0051061885
  H        -0.0057906890       -0.0044488511        0.0022671934
  H        -0.0206240078        0.0095732462       -0.0084792546
  O        -0.0219283906       -0.0087724523       -0.0082690060
  H         0.0278146543        0.0005935654        0.0238285661
  H        -0.0045772639        0.0088564210       -0.0201474130
  O        -0.0039158778       -0.0002040239        0.0314005381
  H        -0.0077091212        0.0017165124       -0.0050026202
  H         0.0080627975        0.0018880229       -0.0225176652
  O         0.0013976100        0.0078889376        0.0076109008
  H        -0.0216507871       -0.0023993497       -0.0019011206
  H         0.0204359200       -0.0058689615       -0.0088678192
  O        -0.0380964359       -0.0059859591        0.0123527304
  H         0.0069196698        0.0063215981       -0.0179723836
  H         0.0246137901       -0.0053744191        0.0030201720
  O         0.0170067012        0.0001926633        0.0071165048
  H         0.0233045782       -0.0017852008       -0.0155880052
  H        -0.0403838450        0.0050950863        0.0062518633
  O        -0.0163931654       -0.0235091904       -0.0023487272
  H         0.0024291159        0.0093897156        0.0051055912
  H         0.0102986546        0.0133523175        0.0033669845
  O         0.0159806886       -0.0019219812        0.0098492376
  H         0.0000190287        0.0019756030        0.0030311855
  H        -0.0137489664        0.0016795203       -0.0153705030
  O        -0.0280170356        0.0052929055       -0.0222608880
  H         0.0341981309       -0.0036300450        0.0326868644
  H         0.0015604844       -0.0007594863       -0.0083579877
  O        -0.0005810286       -0.0263371033        0.0251246103
  H        -0.0037843281        0.0161299358       -0.0301787680
  H         0.0041339896        0.0130208536        0.0050742030
  O        -0.0458378730       -0.0167683168       -0.0092996885
  H         0.0139281202        0.0140404496        0.0087074666
  H         0.0321075632       -0.0079750822       -0.0024733539
  O        -0.0070566987       -0.0038307360        0.0055097085
  H         0.0147842691        0.0087462708        0.0023516154
  H        -0.0045495410       -0.0038528858       -0.0060203677
  O        -0.0099728281       -0.0132744367       -0.0049089744
  H         0.0048512615        0.0033094735        0.0033182684
  H         0.0061080231        0.0029232355       -0.0027757033
  O         0.0261121753       -0.0372317716        0.0003748117
  H        -0.0080752451        0.0106715571       -0.0111344830
  H        -0.0210731974        0.0229960380        0.0083501737
  O        -0.0010456649        0.0172778208       -0.0048855652
  H         0.0042898242       -0.0001346688       -0.0001785491
  H         0.0030234375       -0.0158408731        0.0050287044
  O         0.0035593137       -0.0101894482       -0.0367389331
  H         0.0053445292       -0.0309812955        0.0263179284
  H        -0.0069167364        0.0377772408        0.0143486078
  O        -0.0052659810        0.0028902629        0.0234252411
  H         0.0061503328        0.0018982919       -0.0007355037
  H         0.0010191014       -0.0029136350       -0.0265986754
  O        -0.0329339189       -0.0203264909       -0.0143818255
  H         0.0432494171        0.0047291423        0.0115658954
  H        -0.0084491527        0.0151410315       -0.0056896496
  O        -0.0076461248        0.0175082649        0.0099699921
  H        -0.0082370357       -0.0175985693        0.0003177041
  H         0.0183181697        0.0054010257       -0.0041952184
  O         0.0134824549        0.0196739385       -0.0073746251
  H        -0.0043712699       -0.0114523122       -0.0013582978
  H        -0.0055264651       -0.0127700671       -0.0005994067
  O         0.0178371228       -0.0326252052        0.0154116620
  H        -0.0135351229        0.0014926994       -0.0061670274
  H         0.0011632321        0.0226483084       -0.0072264448
  O         0.0382582163        0.0031658505        0.0267160078
  H        -0.0301441775       -0.0109240731       -0.0346400060
  H        -0.0119042090        0.0061617712        0.0063846142
  O         0.0172390967       -0.0120416532       -0.0130353096
  H        -0.0125957993        0.0091512615        0.0080402916
  H        -0.0040256114       -0.0036988994        0.0085235697
  O        -0.0069908167       -0.0030837921       -0.0095455022
  H         0.0044250909        0.0110432554        0.0050191485
  H         0.0024623671       -0.0033905663        0.0103278392
  O        -0.0100153456       -0.0115688745       -0.0056858166
  H         0.0006465278        0.0118020152        0.0057308203
  H         0.0110926474       -0.0022657261        0.0082007843
  O        -0.0064602408        0.0014468205        0.0107327613
  H         0.0164805212       -0.0018852460        0.0041926754
  H        -0.0000350759        0.0009012621       -0.0177512319
  O         0.0376113963       -0.0250790763        0.0311794424
  H        -0.0228459076        0.0294264928        0.0007047969
  H        -0.0080003505       -0.0051418808       -0.0327202887
  O        -0.0254497723        0.0132190548        0.0076673652
  H         0.0054885497       -0.0011247677        0.0017561335
  H         0.0226509523       -0.0108152918       -0.0097794732
  O        -0.0102076573        0.0042108374        0.0057161497
  H         0.0073063787        0.0022485722        0.0013707066
  H         0.0010440660       -0.0036716043       -0.0059027296
  O         0.0125289040        0.0083730525       -0.0281920909
  H        -0.0170686997       -0.0135733228        0.0403408602
  H         0.0028433046        0.0095475687       -0.0126355222
  O        -0.0089774975       -0.0058153321       -0.0105486667
  H        -0.0076193089       -0.0012155133       -0.0098407222
  H         0.0116983926        0.0056935804        0.0275698233
  O        -0.0013276072        0.0203019953        0.0057676956
  H        -0.0076337542        0.0067052426        0.0018660646
  H         0.0124710718       -0.0188681373       -0.0066669856
  O        -0.0086944826       -0.0074259264       -0.0163892360
  H         0.0173215598        0.0012838159        0.0144354542
  H        -0.0044401797        0.0072457762        0.0083403759
  O         0.0272485535       -0.0005573714        0.0030228951
  H         0.0149508718        0.0085679175        0.0028373709
  H        -0.0397933336       -0.0058855910       -0.0063200079
  O        -0.0203815367       -0.0064808333        0.0211761799
  H         0.0030829967       -0.0059797883        0.0009989765
  H         0.0091782412        0.0075390638       -0.0192798802
  O        -0.0112793171       -0.0120042235       -0.0036828932
  H         0.0134368098        0.0051748213        0.0103009349
  H         0.0061640472        0.0054551189       -0.0019377148
  O         0.0240194860       -0.0077887550        0.0208871084
  H        -0.0143081303       -0.0103463161       -0.0162561054
  H        -0.0112586447        0.0191573371       -0.0101436716
  O        -0.0041078830        0.0021725774       -0.0083003028
  H         0.0053028068       -0.0056023765        0.0025806650
  H         0.0003364806       -0.0009717843        0.0076486328
  O        -0.0008566471        0.0287879266        0.0267812881
  H         0.0019204038       -0.0202087547       -0.0217768406
  H        -0.0008681118       -0.0028842688       -0.0065497509
  O        -0.0366764733        0.0162734420       -0.0178345655
  H        -0.0083087723       -0.0024088358       -0.0086913478
  H         0.0445852252       -0.0114479448        0.0223180833
  O         0.0069956143       -0.0003359048       -0.0085089482
  H        -0.0179751348        0.0021735857       -0.0023877785
  H         0.0093138081       -0.0030432663        0.0046614095
  O         0.0304807288        0.0081313472        0.0096560756
  H        -0.0122684429        0.0003387841        0.0000471692
  H        -0.0161642962       -0.0044926707       -0.0127217981
  O         0.0146494714        0.0242620321       -0.0230869442
  H        -0.0162838407       -0.0160059330        0.0194885284
  H         0.0050016199       -0.0090370738        0.0070162867
  O         0.0107262695        0.0027605479       -0.0005667299
  H         0.0016965258        0.0041749795       -0.0082315911
  H        -0.0101936487       -0.0040229063        0.0027452883
  O        -0.0453477395       -0.0211160925        0.0119709360
  H         0.0199481344        0.0069166076        0.0095067039
  H         0.0288497278        0.0059826755       -0.0245431670
  O        -0.0034572737        0.0531094369        0.0053426980
  H         0.0252683363       -0.0156056808       -0.0147968043
  H        -0.0122058152       -0.0311523759        0.0027463347
  O        -0.0391228911        0.0132125871       -0.0123384231
  H         0.0126872906       -0.0069611020       -0.0041549283
  H         0.0302324448       -0.0106451178        0.0152874581
  O         0.0177263808       -0.0099559498        0.0030247075
  H        -0.0055642472        0.0012172857       -0.0016543294
  H         0.0002951582        0.0085264510       -0.0064170507
  O         0.0182584566        0.0092657754       -0.0071997549
  H        -0.0068259847        0.0023301394       -0.0004721014
  H        -0.0093143623       -0.0109406904        0.0064711207
  O        -0.0119473171        0.0015587632        0.0027184892
  H         0.0047904531       -0.0030666110       -0.0002000307
  H         0.0072598372        0.0042927176        0.0011198839
  O        -0.0132151427        0.0078275946        0.0024089671
  H         0.0041119080       -0.0033101379       -0.0057683936
  H         0.0000981382       -0.0025647408        0.0021828467
  O         0.0121679612        0.0251824421       -0.0069254326
  H        -0.0087129288       -0.0225407993        0.0017357395
  H        -0.0003855239        0.0009179011        0.0018685661
  O        -0.0098763755       -0.0066462535       -0.0026711239
  H         0.0080570380        0.0097875732       -0.0024597634
  H        -0.0004008010        0.0005990791        0.0008799731
  O         0.0027132770        0.0077107697       -0.0190331936
  H        -0.0018000604        0.0080460758        0.0124733170
  H        -0.0004694250       -0.0110363583       -0.0083683607
  O         0.0116705901       -0.0237813536        0.0054973227
  H        -0.0034668458        0.0042578230       -0.0115424474
  H        -0.0052836324        0.0144629583        0.0062993829
  O        -0.0170976118       -0.0192995744       -0.0034470267
  H         0.0208586612        0.0087385348       -0.0015240225
  H        -0.0077620715        0.0092273599        0.0028259659
  O        -0.0128714599       -0.0060067872       -0.0189016704
  H         0.0058542439        0.0040085165        0.0144446417
  H         0.0087131790       -0.0024123809        0.0067174393
  O        -0.0160532891        0.0051162396        0.0129128090
  H        -0.0096668438        0.0172190874       -0.0081472293
  H         0.0283056412       -0.0174516821       -0.0071395032
  O        -0.0299828786        0.0107825747       -0.0334061856
  H         0.0342602953       -0.0183539711        0.0296641595
  H        -0.0041026004        0.0095127784        0.0060169318
  O         0.0428567279        0.0047248950       -0.0101729347
  H        -0.0364828526        0.0027423894        0.0010344609
  H        -0.0013983504       -0.0127950757        0.0124092240
  O        -0.0233349330        0.0059170901        0.0067994021
  H        -0.0035791489        0.0115046078        0.0047726091
  H         0.0246353246       -0.0083096757       -0.0127081960
  O        -0.0050690989       -0.0020049210       -0.0046226336
  H         0.0013575092       -0.0068394248        0.0087121657
  H         0.0038357868        0.0020819017       -0.0034877957
  O        -0.0165963921       -0.0402210975       -0.0224023245
  H         0.0038404233        0.0290965892        0.0234113999
  H         0.0032766066        0.0179324859        0.0034643658
  O        -0.0000426200       -0.0219161951       -0.0152217349
  H         0.0034590131        0.0163441590        0.0128087984
  H        -0.0077267746        0.0024222666        0.0031097575
  O         0.0030682449        0.0039469634        0.0150416094
  H        -0.0012929836       -0.0035480605       -0.0208586647
  H        -0.0094130858        0.0009547913       -0.0027643807
  O        -0.0036024753       -0.0078537857       -0.0267293882
  H        -0.0053944113        0.0172900131       -0.0028332008
  H         0.0099119427       -0.0119228152        0.0311333155
  O         0.0249622377        0.0087446357        0.0191811519
  H        -0.0113501666       -0.0149253674       -0.0310380168
  H        -0.0146939667        0.0101484345        0.0108083367
  O         0.0135221608       -0.0048800586       -0.0057326976
  H        -0.0096291423        0.0013827914        0.0119687754
  H        -0.0069484090        0.0054748448       -0.0061388193
  O         0.0023770623        0.0055960918        0.0022774351
  H         0.0010745090       -0.0020068354        0.0048288791
  H         0.0000996349       -0.0070824820        0.0020467268
  O         0.0295886067       -0.0066644375       -0.0208809833
  H        -0.0106706848        0.0017815814        0.0048767887
  H        -0.0209274576        0.0022261099        0.0233953419
  O        -0.0242848566        0.0578232766       -0.0352787813
  H         0.0151504247       -0.0469278040        0.0120971681
  H         0.0078245137        0.0006899406        0.0144654848
  O         0.0200079834        0.0170527167        0.0111614332
  H        -0.0064597124       -0.0031873851       -0.0024392313
  H         0.0002650536       -0.0030901150       -0.0119778148
  O         0.0075698765       -0.0364537549       -0.0008043548
  H        -0.0092498154        0.0162932151        0.0131377028
  H        -0.0003251171        0.0218152326       -0.0104952120
  O         0.0100596687        0.0045236704        0.0340885772
  H        -0.0040106633        0.0004309175       -0.0041382831
  H        -0.0102622081       -0.0060465705       -0.0229217477
  O         0.0133383373       -0.0048040162        0.0229810532
  H        -0.0089246563        0.0194851904       -0.0011548651
  H        -0.0029739698       -0.0103959939       -0.0197731439
  O        -0.0115338696        0.0112853963        0.0002934468
  H         0.0130990101       -0.0153490691       -0.0080206472
  H         0.0076588157       -0.0006992695        0.0016748005
  O         0.0112279874        0.0020984577        0.0027532504
  H        -0.0063209314       -0.0068455872        0.0047691201
  H        -0.0054685471        0.0014796759       -0.0005683911
  O        -0.0040360064       -0.0164373793       -0.0040395625
  H        -0.0081626259        0.0014322869       -0.0031250314
  H        -0.0000236898        0.0006033405        0.0101609128
  O         0.0143553193       -0.0102044716       -0.0005137329
  H        -0.0098158062        0.0054698788        0.0055422137
  H        -0.0030792743        0.0081587285       -0.0098731220
  O         0.0110045592       -0.0267024720        0.0074524786
  H        -0.0145955055        0.0062158703       -0.0024326353
  H         0.0015559945        0.0196607351       -0.0050058003
     384
 i =        1, time =        1.000, E =     -2210.6163481228
  O         0.0202406765       -0.0017478386        0.0409495668
  H        -0.0408193344       -0.0043065643       -0.0251860806
  H         0.0252183691        0.0019079833       -0.0143482230
  O         0.0007262420        0.0015027753        0.0115614418
  H        -0.0031338528        0.0053051118       -0.0161866733
  H         0.0049875461       -0.0122084290       -0.0035895107
  O        -0.0038102448        0.0135213343       -0.0014663367
  H         0.0062884567       -0.0071279510        0.0052311923
  H        -0.0032177832       -0.0025949788       -0.0065994546
  O        -0.0088935423       -0.0015566202        0.0224702106
  H         0.0002804214        0.0005910123       -0.0145985490
  H         0.0108951595        0.0063281233       -0.0040213977
  O        -0.0087903248       -0.0200301250       -0.0324893349
  H         0.0035300858       -0.0007609564        0.0005495291
  H        -0.0006912700        0.0205949878        0.0325367667
  O        -0.0083137664       -0.0036262730       -0.0010751414
  H         0.0019258694        0.0104529572       -0.0077353262
  H         0.0091592070       -0.0094352259        0.0009111547
  O         0.0152799650        0.0033549393        0.0177058227
  H        -0.0119637774        0.0089456623       -0.0050882886
  H        -0.0024019105       -0.0106140086       -0.0095605922
  O         0.0248549922        0.0176920732       -0.0016635405
  H        -0.0166384387       -0.0221613123       -0.0021964587
  H         0.0048322201        0.0008856795        0.0083802825
  O        -0.0167878144       -0.0115117394        0.0100100012
  H         0.0128626032        0.0153749379       -0.0058013881
  H         0.0032616487       -0.0014332512        0.0055012089
  O         0.0092014448       -0.0038308438       -0.0085109652
  H        -0.0166085094        0.0084735912        0.0029466514
  H         0.0048849986       -0.0015042604        0.0004318583
  O         0.0030754832       -0.0226264010        0.0006855258
  H         0.0088450559        0.0064528996        0.0030830405
  H        -0.0146554538        0.0107041971       -0.0005161719
  O        -0.0141781309       -0.0080225780        0.0030775029
  H        -0.0111323931       -0.0076949543        0.0017096731
  H         0.0226275168        0.0158082697       -0.0012345143
  O        -0.0080786795        0.0141471120        0.0222838817
  H         0.0085592947        0.0005848906        0.0062367535
  H        -0.0028134864       -0.0119613092       -0.0203613658
  O        -0.0357938935       -0.0062282230       -0.0103914737
  H         0.0199208357        0.0000685546       -0.0161542112
  H         0.0162086169        0.0061912216        0.0264780237
  O        -0.0166302493        0.0307781501       -0.0118912746
  H        -0.0145435608        0.0005009651        0.0006031989
  H         0.0199018908       -0.0256437725        0.0054305806
  O        -0.0031021878       -0.0005429883       -0.0603730204
  H        -0.0023373855        0.0039677501        0.0575537620
  H        -0.0009502149       -0.0071211492        0.0097238966
  O         0.0014667756        0.0048545358        0.0060994641
  H        -0.0039189042       -0.0054185512       -0.0006084869
  H         0.0030006810        0.0003607095        0.0040782785
  O        -0.0095572279        0.0025958247        0.0144029252
  H         0.0176129863        0.0103063566       -0.0072461643
  H        -0.0127210320       -0.0094198934       -0.0102261785
  O        -0.0075614820       -0.0091401810        0.0001410469
  H         0.0038842028       -0.0007050042        0.0112502263
  H        -0.0009082906        0.0059383503       -0.0118743575
  O         0.0501099826        0.0049425511        0.0075509619
  H        -0.0138461823        0.0076396038        0.0011763023
  H        -0.0343172062       -0.0148352063       -0.0141082125
  O        -0.0114758448       -0.0039714055        0.0035002307
  H         0.0012350282        0.0094615743       -0.0129209708
  H         0.0135205776       -0.0043415246        0.0200531734
  O        -0.0114616428        0.0187477337        0.0166912338
  H         0.0088531470       -0.0064307331       -0.0102350798
  H         0.0020740740       -0.0100021092       -0.0094683687
  O         0.0074163496        0.0016382589       -0.0180876013
  H        -0.0025055925       -0.0031910121        0.0156713230
  H        -0.0107314344        0.0089346685       -0.0017093922
  O        -0.0113889783        0.0173743776       -0.0193324966
  H        -0.0004537841       -0.0006763398        0.0158203110
  H         0.0048037533       -0.0183179924        0.0073590399
  O        -0.0030410766        0.0071796273       -0.0157925005
  H        -0.0107846732       -0.0017163695        0.0211380524
  H         0.0162648261       -0.0059077513       -0.0045730383