       0       0.000     -2210.627708006     -2210.627708006         0.000000000     -2210.108242717
       1       1.000     -2210.616348123     -2210.616348123         0.000000000     -2210.108264722
       2       2.000     -2210.603570367     -2210.603570367         0.000000000     -2210.106244825
       3       3.000     -2210.616696287     -2210.616696287         0.000000000     -2210.108012033
       4       4.000     -2210.634859894     -2210.634859894         0.000000000     -2210.110177951
       5       5.000     -2210.629350976     -2210.629350976         0.000000000     -2210.108690883
       6       6.000     -2210.618279779     -2210.618279779         0.000000000     -2210.107561466
       7       7.000     -2210.619066940     -2210.619066940         0.000000000     -2210.108132792
       8       8.000     -2210.625424934     -2210.625424934         0.000000000     -2210.108966728
       9       9.000     -2210.626411333     -2210.626411333         0.000000000     -2210.109188930
      10      10.000     -2210.620488493     -2210.620488493         0.000000000     -2210.108850828
      11      11.000     -2210.616061022     -2210.616061022         0.000000000     -2210.108263152
      12      12.000     -2210.621932993     -2210.621932993         0.000000000     -2210.108925328
      13      13.000     -2210.629988705     -2210.629988705         0.000000000     -2210.109133478
      14      14.000     -2210.634357624     -2210.634357624         0.000000000     -2210.108939983
      15      15.000     -2210.634704789     -2210.634704789         0.000000000     -2210.108759855
      16      16.000     -2210.631778382     -2210.631778382         0.000000000     -2210.108236830
      17      17.000     -2210.629386889     -2210.629386889         0.000000000     -2210.108464736
      18      18.000     -2210.623662718     -2210.623662718         0.000000000     -2210.108594798
      19      19.000     -2210.613869743     -2210.613869743         0.000000000     -2210.107839980
      20      20.000     -2210.612883654     -2210.612883654         0.000000000     -2210.107794418
      21      21.000     -2210.620985771     -2210.620985771         0.000000000     -2210.110043053
      22      22.000     -2210.613021564     -2210.613021564         0.000000000     -2210.109224898
      23      23.000     -2210.600343969     -2210.600343969         0.000000000     -2210.107773299
      24      24.000     -2210.603954235     -2210.603954235         0.000000000     -2210.108853120
      25      25.000     -2210.612419916     -2210.612419916         0.000000000     -2210.109410189
      26      26.000     -2210.615645763     -2210.615645763         0.000000000     -2210.109594896
      27      27.000     -2210.609325825     -2210.609325825         0.000000000     -2210.109633782
      28      28.000     -2210.595573632     -2210.595573632         0.000000000     -2210.107896869
      29      29.000     -2210.597889874     -2210.597889874         0.000000000     -2210.107773710
      30      30.000     -2210.616599854     -2210.616599854         0.000000000     -2210.110171017
      31      31.000     -2210.620583448     -2210.620583448         0.000000000     -2210.109981666
      32      32.000     -2210.610814456     -2210.610814456         0.000000000     -2210.108451015
      33      33.000     -2210.608840791     -2210.608840791         0.000000000     -2210.108421886
      34      34.000     -2210.616935401     -2210.616935401         0.000000000     -2210.108787510
      35      35.000     -2210.628508374     -2210.628508374         0.000000000     -2210.108867875
      36      36.000     -2210.636946276     -2210.636946276         0.000000000     -2210.109589653
      37      37.000     -2210.631313110     -2210.631313110         0.000000000     -2210.108421985
      38      38.000     -2210.625039671     -2210.625039671         0.000000000     -2210.107238171
      39      39.000     -2210.631882634     -2210.631882634         0.000000000     -2210.108169021
      40      40.000     -2210.639838469     -2210.639838469         0.000000000     -2210.108475310
      41      41.000     -2210.643612610     -2210.643612610         0.000000000     -2210.108252598
      42      42.000     -2210.647244667     -2210.647244667         0.000000000     -2210.108572644
      43      43.000     -2210.648790725     -2210.648790725         0.000000000     -2210.109091270
      44      44.000     -2210.644584125     -2210.644584125         0.000000000     -2210.108491340
      45      45.000     -2210.642530673     -2210.642530673         0.000000000     -2210.108458398
      46      46.000     -2210.642368787     -2210.642368787         0.000000000     -2210.108982434
      47      47.000     -2210.635451282     -2210.635451282         0.000000000     -2210.108584735
      48      48.000     -2210.625217081     -2210.625217081         0.000000000     -2210.107486094
      49      49.000     -2210.625022657     -2210.625022657         0.000000000     -2210.107455180
      50      50.000     -2210.635513014     -2210.635513014         0.000000000     -2210.108398536
      51      51.000     -2210.644968690     -2210.644968690         0.000000000     -2210.109038461
      52      52.000     -2210.644719943     -2210.644719943         0.000000000     -2210.109699669
      53      53.000     -2210.630231549     -2210.630231549         0.000000000     -2210.108562513
      54      54.000     -2210.618909465     -2210.618909465         0.000000000     -2210.107570124
      55      55.000     -2210.622871468     -2210.622871468         0.000000000     -2210.108837448
      56      56.000     -2210.621991672     -2210.621991672         0.000000000     -2210.109601224
      57      57.000     -2210.601204027     -2210.601204027         0.000000000     -2210.107704959
      58      58.000     -2210.582468383     -2210.582468383         0.000000000     -2210.105618874
      59      59.000     -2210.591162299     -2210.591162299         0.000000000     -2210.106722428
      60      60.000     -2210.612238233     -2210.612238233         0.000000000     -2210.108660635
      61      61.000     -2210.618913893     -2210.618913893         0.000000000     -2210.109208843
      62      62.000     -2210.607299511     -2210.607299511         0.000000000     -2210.107970481
      63      63.000     -2210.600483413     -2210.600483413         0.000000000     -2210.106861441
      64      64.000     -2210.616107153     -2210.616107153         0.000000000     -2210.108516757
      65      65.000     -2210.630781696     -2210.630781696         0.000000000     -2210.110409473
      66      66.000     -2210.616685396     -2210.616685396         0.000000000     -2210.108507729
      67      67.000     -2210.595934942     -2210.595934942         0.000000000     -2210.105837360
      68      68.000     -2210.603022950     -2210.603022950         0.000000000     -2210.106112368
      69      69.000     -2210.632512174     -2210.632512174         0.000000000     -2210.108103285
      70      70.000     -2210.653734041     -2210.653734041         0.000000000     -2210.109064678
      71      71.000     -2210.652043472     -2210.652043472         0.000000000     -2210.107845642
      72      72.000     -2210.645755900     -2210.645755900         0.000000000     -2210.106094520
      73      73.000     -2210.658286174     -2210.658286174         0.000000000     -2210.106994647
      74      74.000     -2210.674247397     -2210.674247397         0.000000000     -2210.109092464
      75      75.000     -2210.661457593     -2210.661457593         0.000000000     -2210.107963965
      76      76.000     -2210.630362681     -2210.630362681         0.000000000     -2210.105205461
      77      77.000     -2210.616361783     -2210.616361783         0.000000000     -2210.104288157
      78      78.000     -2210.630200609     -2210.630200609         0.000000000     -2210.105783263
      79      79.000     -2210.647315818     -2210.647315818         0.000000000     -2210.107860364
      80      80.000     -2210.638998422     -2210.638998422         0.000000000     -2210.107048533
      81      81.000     -2210.617808508     -2210.617808508         0.000000000     -2210.104997471
      82      82.000     -2210.615627208     -2210.615627208         0.000000000     -2210.104908466
      83      83.000     -2210.634234161     -2210.634234161         0.000000000     -2210.107294653
      84      84.000     -2210.639257850     -2210.639257850         0.000000000     -2210.108429101
      85      85.000     -2210.613143824     -2210.613143824         0.000000000     -2210.106189410
      86      86.000     -2210.586190109     -2210.586190109         0.000000000     -2210.103665995
      87      87.000     -2210.592144445     -2210.592144445         0.000000000     -2210.104558160
      88      88.000     -2210.617867406     -2210.617867406         0.000000000     -2210.106909612
      89      89.000     -2210.628356941     -2210.628356941         0.000000000     -2210.107508511
      90      90.000     -2210.616324946     -2210.616324946         0.000000000     -2210.105542758
      91      91.000     -2210.611197722     -2210.611197722         0.000000000     -2210.104552520
      92      92.000     -2210.628389948     -2210.628389948         0.000000000     -2210.106185502
      93      93.000     -2210.644965211     -2210.644965211         0.000000000     -2210.107633238
      94      94.000     -2210.637035404     -2210.637035404         0.000000000     -2210.107148270
      95      95.000     -2210.610277845     -2210.610277845         0.000000000     -2210.104649987
      96      96.000     -2210.597578187     -2210.597578187         0.000000000     -2210.103519216
      97      97.000     -2210.612949082     -2210.612949082         0.000000000     -2210.104772394
      98      98.000     -2210.636246669     -2210.636246669         0.000000000     -2210.106240174
      99      99.000     -2210.644390849     -2210.644390849         0.000000000     -2210.106146113
     100     100.000     -2210.639133526     -2210.639133526         0.000000000     -2210.104884373
