     384
 i =        0, time =        0.000, E =     -2210.6277080064
  O         0.0003043326        0.0000710563       -0.0001542634
  H         0.0011220587        0.0000638717        0.0000390123
  H        -0.0008152738        0.0016212090        0.0010801135
  O        -0.0001054387        0.0002354482        0.0003815925
  H        -0.0013508550       -0.0003583797        0.0003999497
  H         0.0000459193        0.0001404069       -0.0003744505
  O        -0.0001744370       -0.0000437369        0.0003529959
  H        -0.0010461600       -0.0001511989        0.0002544057
  H         0.0007611146        0.0004038272        0.0001886543
  O         0.0001556849        0.0000409158        0.0000288090
  H         0.0003716219       -0.0005784686       -0.0002388290
  H        -0.0007032295       -0.0000772152        0.0004427897
  O        -0.0000069898       -0.0001274271        0.0001469544
  H         0.0012612013       -0.0002536123        0.0005751712
  H         0.0003284481       -0.0008490246       -0.0015104587
  O         0.0001940827       -0.0001767305        0.0000230200
  H         0.0000829228       -0.0004166634       -0.0001381629
  H        -0.0001894649        0.0000432870       -0.0005647057
  O        -0.0002603079       -0.0001204180        0.0003242700
  H         0.0006106907       -0.0007328612        0.0000468102
  H        -0.0001693606        0.0006797693       -0.0000049161
  O        -0.0001071867       -0.0002592572       -0.0001899560
  H        -0.0001576661       -0.0003311933        0.0010094080
  H         0.0004831827       -0.0003366199        0.0007301183
  O         0.0000803064        0.0002494765        0.0001203804
  H         0.0000529930       -0.0006893614        0.0004249655
  H        -0.0012108710        0.0008760698       -0.0004467818
  O        -0.0001530642        0.0002404595        0.0002018762
  H        -0.0003701748       -0.0015770962       -0.0005128019
  H         0.0008281082       -0.0005289809        0.0006617949
  O        -0.0004063384        0.0002726921        0.0001702476
  H        -0.0000060029       -0.0012453939       -0.0004896102
  H         0.0009774812       -0.0012400206       -0.0011643719
  O        -0.0002676601       -0.0003519026        0.0000178711
  H         0.0007058901       -0.0005486083       -0.0001658593
  H        -0.0006120430       -0.0017948364       -0.0002304223
  O         0.0002157827       -0.0000858169        0.0002224568
  H        -0.0011600974        0.0004213418        0.0004295292
  H        -0.0003070744        0.0002635209        0.0004277433
  O         0.0003065775        0.0000269401       -0.0000206065
  H        -0.0000602060       -0.0007059124        0.0007798912
  H        -0.0013138545       -0.0007603255        0.0000012308
  O         0.0002393998       -0.0000429689        0.0001462752
  H         0.0000559638        0.0007249417       -0.0006860708
  H        -0.0010429514        0.0005090957        0.0000193055
  O        -0.0000336759        0.0000381392        0.0000080733
  H         0.0008998208       -0.0000005682       -0.0023834416
  H        -0.0011888213        0.0001105968        0.0007434804
  O         0.0001972620        0.0004432859       -0.0000310077
  H        -0.0004325474        0.0012398833       -0.0012632577
  H         0.0003986821        0.0014391746        0.0000190667
  O         0.0002919916        0.0000796775       -0.0000786710
  H        -0.0000778922       -0.0008897560        0.0001593277
  H         0.0006731957        0.0001814661       -0.0002575763
  O        -0.0001019331        0.0001128720       -0.0000290590
  H        -0.0019129344        0.0009444530        0.0002365055
  H         0.0000798482        0.0008088735       -0.0002140000
  O         0.0000962363        0.0001767456       -0.0000154703
  H         0.0016626716        0.0003450152        0.0002360868
  H         0.0006911365        0.0002324980       -0.0004990252
  O        -0.0000264318       -0.0001125336       -0.0001232670
  H        -0.0017536961        0.0003805017        0.0007905931
  H        -0.0006445031        0.0001932706        0.0005276115
  O        -0.0001111897       -0.0000676428        0.0000116563
  H        -0.0001165835        0.0001631289        0.0001483160
  H         0.0001713254       -0.0002625844       -0.0000829673
  O         0.0000387639        0.0001495884       -0.0000533158
  H         0.0008626059        0.0003333320        0.0004139705
  H         0.0009446982        0.0004260658       -0.0003706013
  O        -0.0001374481        0.0000722805       -0.0001877413
  H        -0.0002385661       -0.0011290606       -0.0014549631
  H        -0.0013006703        0.0000855861       -0.0008585749
  O         0.0003190787       -0.0001775654       -0.0001179359
  H        -0.0000693219        0.0002753005        0.0001733023
  H        -0.0000991698        0.0000367942        0.0005117902
  O        -0.0000809122        0.0000823357       -0.0001716762
  H         0.0002422088       -0.0005226529        0.0004039998
  H         0.0006179709        0.0003654521        0.0001030450
  O        -0.0000411210       -0.0001804998        0.0001440997
  H        -0.0003504384        0.0003163163       -0.0006818977
  H        -0.0007032467       -0.0009567476        0.0005816500
  O        -0.0000592657        0.0001471446        0.0001326123
  H         0.0000183783       -0.0000897869        0.0011948182
  H         0.0000328956       -0.0000659643       -0.0003660603
  O        -0.0001850570       -0.0000359525        0.0002812919
  H         0.0013272938       -0.0010331144        0.0000305030
  H         0.0005769428        0.0004585734        0.0003753818
  O        -0.0004008944        0.0001344909       -0.0000232617
  H        -0.0007237143        0.0008987696       -0.0006465458
  H        -0.0005055376       -0.0005038459        0.0010241289
  O        -0.0002001473        0.0000493212        0.0001288398
  H         0.0004276380        0.0004341692        0.0011841145
  H        -0.0012567846       -0.0009097482       -0.0013416024
  O        -0.0000042686       -0.0004470039       -0.0001034025
  H        -0.0006362458        0.0012430116        0.0004928678
  H         0.0008864987        0.0011232269       -0.0002280784
  O        -0.0000362241        0.0000306953        0.0000994897
  H         0.0001196269        0.0004012127       -0.0001070736
  H         0.0004923133       -0.0002365251       -0.0002368726
  O         0.0004818166        0.0000514093        0.0000692926
  H        -0.0013577106       -0.0000885484        0.0010441176
  H        -0.0000852191        0.0009107699        0.0004746567
  O         0.0001761869        0.0000883477        0.0000368148
  H         0.0004457896       -0.0001100003       -0.0002782394
  H        -0.0001832732        0.0010628262       -0.0006439558
  O        -0.0000941384        0.0002606840       -0.0002461823
  H        -0.0006649329       -0.0009561794       -0.0011017165
  H        -0.0003012224        0.0012338694        0.0009356637
  O         0.0002044005        0.0000640991        0.0000749303
  H        -0.0014748812       -0.0001665925       -0.0005909246
  H        -0.0002236324        0.0005857414       -0.0005945818
  O        -0.0000395893        0.0001153967       -0.0000310631
  H        -0.0002121337       -0.0006589994       -0.0008936063
  H        -0.0005062813        0.0001506629       -0.0002675193
  O         0.0000019581        0.0001536755        0.0001553860
  H        -0.0000705813       -0.0009548552        0.0006337589
  H         0.0000186462        0.0002097010        0.0009339392
  O         0.0001495470        0.0002283714       -0.0001038999
  H         0.0008895548       -0.0003807755        0.0002850194
  H         0.0001607770        0.0008647889       -0.0008530441
  O        -0.0001005845       -0.0001225213        0.0000944994
  H        -0.0015600233        0.0007504281        0.0003149305
  H         0.0002515932       -0.0010192946       -0.0011997014
  O        -0.0000733083        0.0000457962        0.0002700806
  H         0.0000922159        0.0006327933        0.0000904472
  H        -0.0003374373       -0.0012374590       -0.0002391258
  O        -0.0001960684        0.0000188343        0.0001416377
  H        -0.0006931856       -0.0001793658        0.0000955170
  H         0.0000892377        0.0008053296        0.0009153845
  O         0.0000552942       -0.0001368080       -0.0001940473
  H         0.0001385538        0.0004714792       -0.0003344854
  H        -0.0004949851       -0.0009537930        0.0011221071
  O         0.0000222254        0.0001291549       -0.0000046124
  H         0.0014962448       -0.0017961739       -0.0007410713
  H        -0.0000978727        0.0002526069       -0.0008114492
  O         0.0002669457        0.0001972838       -0.0000477665
  H         0.0000671646        0.0002770180       -0.0000811273
  H        -0.0004704468       -0.0000034712        0.0004337211
  O         0.0000118630       -0.0000772606        0.0000411745
  H        -0.0009530093        0.0011026320       -0.0003204095
  H         0.0001946374       -0.0008810917        0.0004802662
  O         0.0001918612        0.0000589718        0.0001470666
  H         0.0013205583        0.0003353571        0.0003306607
  H         0.0004583652       -0.0006310111       -0.0004561380
  O         0.0001263357       -0.0001074592        0.0000135901
  H         0.0006043639       -0.0003347957       -0.0005493837
  H         0.0007034178        0.0002799199       -0.0003556517
  O        -0.0000628306       -0.0001263588        0.0003692896
  H         0.0011210041       -0.0002186040       -0.0006276326
  H         0.0002243805       -0.0003016471       -0.0010205888
  O        -0.0001828825        0.0000748275        0.0000029938
  H         0.0006584377        0.0004321562       -0.0004999721
  H        -0.0000661071       -0.0002214850       -0.0003665812
  O        -0.0000237581        0.0000918198       -0.0000311362
  H        -0.0017860317       -0.0004697787        0.0006301510
  H        -0.0001391189        0.0000323400        0.0010879941
  O         0.0001233129        0.0001716008       -0.0000810615
  H         0.0005074613        0.0004834456       -0.0005875289
  H        -0.0000228037       -0.0005578444        0.0001603957
  O        -0.0000108384       -0.0000508830       -0.0000904459
  H        -0.0003474667       -0.0001753581       -0.0005374661
  H         0.0005929495       -0.0010645157       -0.0001373486
  O         0.0003145413        0.0000622906       -0.0001755406
  H         0.0003577433        0.0002854056       -0.0006406750
  H         0.0009374745        0.0000950090        0.0002919195
  O        -0.0002992453        0.0000949545        0.0002014490
  H         0.0001392738       -0.0004156750        0.0000236216
  H        -0.0001420141        0.0004730866       -0.0000137874
  O        -0.0001269112        0.0002395519        0.0000988419
  H         0.0001588848        0.0006278657        0.0011671112
  H        -0.0005284807        0.0009745289        0.0004231489
  O        -0.0000241075        0.0002425281       -0.0001532926
  H        -0.0002336951        0.0006702707        0.0001564795
  H         0.0010048262       -0.0007603487       -0.0003610738
  O         0.0001955199       -0.0001278279       -0.0000019916
  H         0.0000348984       -0.0006769108        0.0015250083
  H        -0.0003409087       -0.0012368571        0.0001192106
  O        -0.0000969826       -0.0001423578        0.0000448101
  H        -0.0004548188       -0.0003997611        0.0003500208
  H        -0.0011383902       -0.0000554807       -0.0016237809
  O        -0.0001090871       -0.0000997991       -0.0001018513
  H         0.0003939697        0.0000912861        0.0009335502
  H         0.0007373171       -0.0005218168        0.0004252332
  O         0.0001021334       -0.0000720992        0.0004246023
  H         0.0003551765        0.0005313242        0.0007547185
  H         0.0004233370       -0.0013168087       -0.0000697968
  O        -0.0000078279       -0.0001423712       -0.0002214179
  H        -0.0004383488       -0.0004683657       -0.0004016308
  H         0.0012386945       -0.0001905342        0.0005064062
  O         0.0001379177        0.0002288840       -0.0001603907
  H         0.0002809395       -0.0007494682       -0.0004331206
  H        -0.0001755205       -0.0006358358        0.0009113251
  O         0.0001218784        0.0001360560        0.0000087716
  H         0.0003080608       -0.0001605940       -0.0009860275
  H         0.0010402859       -0.0001181292        0.0003669122
  O        -0.0001019262       -0.0000726721        0.0001080198
  H        -0.0004995186        0.0011371395        0.0012028880
  H        -0.0006642022       -0.0002402217        0.0005760071
  O        -0.0001885153       -0.0000900493       -0.0001660067
  H        -0.0004587549       -0.0004218069        0.0001155508
  H         0.0016144672        0.0000891327       -0.0001970925
  O        -0.0002640535       -0.0002613919       -0.0000503292
  H        -0.0004310748       -0.0002897910        0.0002767256
  H        -0.0006383383        0.0000535311       -0.0011022051
  O         0.0000735959       -0.0000693475        0.0001784295
  H        -0.0009306729       -0.0000855404       -0.0001050569
  H         0.0008587417       -0.0004086522        0.0006213520
  O        -0.0002209349        0.0000669761        0.0001699945
  H        -0.0003329105        0.0007081186        0.0014195787
  H         0.0002166749       -0.0003899946       -0.0023384823
  O         0.0000984003        0.0001920029        0.0001556962
  H        -0.0004141443        0.0006523064        0.0002634747
  H         0.0010485017       -0.0002404030       -0.0005119112
  O        -0.0001733351        0.0000118507       -0.0000305039
  H         0.0012316840        0.0013771722        0.0001060390
  H        -0.0005500195        0.0002300539        0.0001010365
  O        -0.0001491886       -0.0003228678       -0.0000361553
  H        -0.0002052588       -0.0014575569       -0.0003147274
  H         0.0004777783        0.0000640563        0.0007212486
  O         0.0004604246        0.0002637743        0.0001033395
  H        -0.0000512098        0.0003819422       -0.0004863825
  H        -0.0005080505       -0.0003399017       -0.0020790181
  O         0.0002284581       -0.0000876052        0.0000569266
  H         0.0007298741        0.0006124894        0.0006521526
  H        -0.0004849488       -0.0000831964        0.0002936262
  O        -0.0002143947        0.0000053926       -0.0001303618
  H         0.0000615603        0.0002556386       -0.0003212086
  H         0.0002021926       -0.0005648939        0.0003775840
  O         0.0000386953       -0.0002916996       -0.0002145518
  H         0.0002663607        0.0002516881        0.0009662088
  H         0.0006775456        0.0004529136       -0.0000281643
  O        -0.0000017825       -0.0000675147       -0.0003137177
  H         0.0000471895        0.0007997801       -0.0002404664
  H         0.0000274190       -0.0003985623       -0.0001219043
  O        -0.0001591242       -0.0000690249        0.0000151459
  H        -0.0008444497       -0.0006889002       -0.0005618669
  H         0.0004405239        0.0005059774        0.0009675574
  O         0.0000423403        0.0000722739       -0.0001564488
  H         0.0001867859        0.0001764220       -0.0014180165
  H        -0.0000920787       -0.0005425139        0.0003775541
  O        -0.0000621347       -0.0000686586        0.0001248593
  H         0.0005949270       -0.0000121797       -0.0009568077
  H        -0.0005569994        0.0004439003       -0.0008050580
  O         0.0001743520       -0.0000885003       -0.0001460050
  H         0.0011857664        0.0001800765       -0.0009880024
  H        -0.0010937789        0.0000476871       -0.0009014756
  O        -0.0001015651       -0.0001045716       -0.0001600239
  H         0.0010607139       -0.0010010212        0.0004041653
  H         0.0004781270       -0.0002219766        0.0012072569
  O         0.0001571856       -0.0002830360        0.0002761219
  H         0.0001325243       -0.0005211279       -0.0005703613
  H        -0.0004003111       -0.0004167380       -0.0005752980
  O        -0.0001993499       -0.0000652194       -0.0001012142
  H         0.0002853689        0.0020055728        0.0000418000
  H        -0.0007965641       -0.0011026831       -0.0002754044
  O         0.0000082840       -0.0001057746       -0.0001112275
  H         0.0003854256       -0.0009445034        0.0000522631
  H         0.0000126357        0.0008017642       -0.0000209429
  O        -0.0000923038       -0.0001447978       -0.0000097054
  H         0.0002242637        0.0002731264       -0.0011429063
  H        -0.0007227225        0.0000119042        0.0001589789
  O         0.0003644905       -0.0001240416       -0.0001222474
  H         0.0019614870        0.0000710382        0.0006174394
  H        -0.0012208173       -0.0007985260        0.0013371694
  O         0.0002685851       -0.0001296493        0.0000186312
  H         0.0008550944       -0.0009593849        0.0008109196
  H        -0.0005252086        0.0006633117       -0.0003631757
  O        -0.0002952930        0.0000138563       -0.0002342423
  H         0.0005136798        0.0002070264       -0.0004289023
  H         0.0002119420        0.0001579001       -0.0007569541
  O        -0.0003153462        0.0000659083       -0.0002612083
  H         0.0000845152       -0.0005487913       -0.0006449274
  H         0.0008237471       -0.0003088644       -0.0004010851
  O         0.0000369548       -0.0000605968       -0.0000797958
  H        -0.0008897369        0.0005919328        0.0012366970
  H         0.0005429256       -0.0000754304        0.0000798955
  O        -0.0000752622       -0.0000917748       -0.0001879965
  H        -0.0010231135       -0.0008239970       -0.0010670835
  H        -0.0002304731        0.0008345058        0.0004270628
  O        -0.0000759185       -0.0001706232        0.0000269100
  H         0.0006237971        0.0006600404        0.0006496555
  H         0.0005175857       -0.0009224829       -0.0001726627
  O         0.0000907843        0.0000476244        0.0001432381
  H         0.0010110427        0.0006078376        0.0006960397
  H        -0.0009050787        0.0009096492       -0.0000993659
  O         0.0002072902       -0.0000023423        0.0000134872
  H         0.0007512444       -0.0005175716       -0.0006287407
  H         0.0004424480        0.0012616150        0.0002812717
  O        -0.0000123546       -0.0001877601        0.0001209376
  H         0.0002646355        0.0007761286        0.0012262623
  H        -0.0000207782        0.0009178274       -0.0006124398
  O         0.0000937503       -0.0000061536        0.0000523507
  H        -0.0011340966       -0.0003809798        0.0000468784
  H        -0.0002239539       -0.0003566855       -0.0004375651
  O        -0.0000811860       -0.0000625229       -0.0001487052
  H         0.0008659140        0.0003111414        0.0009134988
  H        -0.0009107590        0.0002896748       -0.0002487112
  O         0.0000918241       -0.0002041387       -0.0003464684
  H        -0.0006215952        0.0003777397       -0.0009343508
  H        -0.0001685730       -0.0005355602       -0.0001730413
  O        -0.0000482354        0.0001254694        0.0000795846
  H        -0.0002566876       -0.0006774443       -0.0013910963
  H        -0.0013900450       -0.0007749871       -0.0003112057
  O        -0.0001049214       -0.0002524239       -0.0002977089
  H         0.0010875292       -0.0000981771       -0.0006959625
  H        -0.0005677273       -0.0011330059        0.0000701997
  O        -0.0002234934        0.0000778402        0.0002091119
  H         0.0005867788        0.0009793971        0.0004961340
  H        -0.0010045966        0.0005974044        0.0012909264
  O         0.0000527127       -0.0000730043       -0.0001175687
  H         0.0013763668       -0.0010741638        0.0010981963
  H         0.0001400626       -0.0000771404       -0.0011676687
  O        -0.0001172552        0.0001889848        0.0002754745
  H         0.0000896544        0.0001240216        0.0008034821
  H         0.0006476991       -0.0004202891       -0.0001962728
  O        -0.0001412034        0.0000213195        0.0001137973
  H         0.0005081628       -0.0003957645        0.0010786608
  H         0.0009101890       -0.0007469523       -0.0005405713
  O         0.0001428859        0.0000232853        0.0000189945
  H         0.0003204770       -0.0004172792       -0.0001655032
  H         0.0005150202       -0.0015770544       -0.0005110270
  O        -0.0003207262       -0.0000194745        0.0000456415
  H         0.0004389959       -0.0000432913       -0.0015270432
  H        -0.0001498324       -0.0002713454       -0.0000116545
  O        -0.0002404074       -0.0000341862        0.0001179707
  H         0.0004961920       -0.0010671817        0.0001704554
  H        -0.0003192961       -0.0002650014       -0.0000748860
  O        -0.0000043028       -0.0000127158       -0.0000905418
  H        -0.0002940985        0.0006851576       -0.0003700436
  H        -0.0013351321       -0.0009196959       -0.0006299910
  O         0.0000797234        0.0000585720       -0.0002317538
  H         0.0008293648       -0.0000270944        0.0003165172
  H        -0.0002487262        0.0001347647       -0.0008981863
  O        -0.0000113309        0.0004707522        0.0004007296
  H         0.0009414774        0.0000142449       -0.0006660553
  H        -0.0003278348        0.0007254450        0.0004546567
  O         0.0003518693       -0.0000765495        0.0000601243
  H         0.0000796830       -0.0008807549       -0.0000129162
  H         0.0009107730        0.0005628412       -0.0014487804
  O        -0.0000293963        0.0001009651        0.0000023522
  H         0.0009084557        0.0009839778       -0.0002481895
  H         0.0001733322       -0.0000351140        0.0007964364
  O         0.0003992181        0.0001090158       -0.0000368787
  H         0.0000574197        0.0001872551       -0.0010950273
  H        -0.0002215014       -0.0005171930       -0.0015554693
  O         0.0000879015       -0.0001667066       -0.0002098985
  H        -0.0011037143       -0.0002020131        0.0000962459
  H        -0.0008925260       -0.0009970221       -0.0001546652
  O         0.0000362497        0.0002694729       -0.0001817676
  H         0.0001213526       -0.0003715796       -0.0003696725
  H        -0.0002756373        0.0005668535       -0.0018952424
  O        -0.0001784501        0.0002466129       -0.0002812031
  H         0.0006083409        0.0002910192        0.0003289951
  H         0.0002245783        0.0007353863        0.0003389995
  O         0.0002600015        0.0000649915        0.0000795488
  H        -0.0016009915       -0.0005651265       -0.0015388529
  H        -0.0000191982        0.0000820935       -0.0002601972
  O        -0.0001063421       -0.0003030895        0.0000681417
  H         0.0009023806        0.0013632501        0.0004550504
  H        -0.0003802837        0.0003426075       -0.0007211381
  O        -0.0002537081       -0.0001273437        0.0000633942
  H        -0.0011706127       -0.0003569685       -0.0004441038
  H        -0.0007339745       -0.0002295278        0.0001002405
  O        -0.0002299852        0.0001325679       -0.0001473956
  H         0.0005452870        0.0006342616        0.0005238970
  H         0.0002521695        0.0003922611       -0.0000914082
  O         0.0002186595        0.0000374170        0.0001169038
  H         0.0000807612        0.0002930127        0.0003835652
  H        -0.0006431702       -0.0009493628        0.0005046859
  O         0.0000158133       -0.0000323854        0.0000206711
  H         0.0018782558       -0.0005756211        0.0001606093
  H        -0.0000939946        0.0002254057        0.0000379139
  O         0.0001922734        0.0001124822        0.0001163293
  H         0.0000499276        0.0005690018       -0.0003383660
  H         0.0001239232        0.0010260480        0.0000757517
  O        -0.0005117214        0.0001100271       -0.0000340028
  H        -0.0016765165        0.0000603159       -0.0001558881
  H        -0.0000271113        0.0001622771       -0.0000521009
  O         0.0002667451       -0.0001714019        0.0003671221
  H        -0.0000031483        0.0006581448       -0.0013664691
  H        -0.0001058723        0.0003484688       -0.0015669299
  O        -0.0000697062        0.0000333537       -0.0001334392
  H        -0.0019979110        0.0003052530       -0.0000903782
  H         0.0003974642        0.0008490797       -0.0000273849
     384
 i =        1, time =        1.000, E =     -2210.6163481228
  O         0.0003267360        0.0000684832       -0.0001092935
  H         0.0003142445       -0.0000065626       -0.0005104808
  H        -0.0002591573        0.0016399773        0.0009500704
  O        -0.0001008544        0.0002333093        0.0004035894
  H        -0.0014563987       -0.0002148915        0.0000374761
  H         0.0001306364       -0.0000883156       -0.0005374823
  O        -0.0001703673       -0.0000295451        0.0003546540
  H        -0.0010724611       -0.0002644575        0.0002956915
  H         0.0007027204        0.0003774965        0.0000593270
  O         0.0001508380        0.0000477194        0.0000631149
  H         0.0003351311       -0.0006154892       -0.0006608451
  H        -0.0005366198       -0.0000258529        0.0004036342
  O        -0.0000180275       -0.0001496199        0.0001102376
  H         0.0013446134       -0.0002568625        0.0006377294
  H         0.0002914198       -0.0004971591       -0.0009803110
  O         0.0001882964       -0.0001869855        0.0000234909
  H         0.0001055809       -0.0001898341       -0.0003047892
  H        -0.0000531946       -0.0000775596       -0.0005758967
  O        -0.0002438134       -0.0001126599        0.0003459256
  H         0.0004133946       -0.0006518051       -0.0000317801
  H        -0.0002093971        0.0005135821       -0.0001936728
  O        -0.0000666058       -0.0002346043       -0.0001993111
  H        -0.0005678204       -0.0008596154        0.0009885302
  H         0.0005466964       -0.0002932470        0.0010126367
  O         0.0000599088        0.0002324006        0.0001307904
  H         0.0002870755       -0.0003913476        0.0003188286
  H        -0.0011497282        0.0009062293       -0.0002893251
  O        -0.0001500098        0.0002543288        0.0001922211
  H        -0.0005528364       -0.0015407147       -0.0005326833
  H         0.0009027200       -0.0007067932        0.0007195144
  O        -0.0004137359        0.0002549993        0.0001661433
  H         0.0001765370       -0.0011353808       -0.0004225284
  H         0.0008468677       -0.0011844421       -0.0010992343
  O        -0.0002845147       -0.0003594253        0.0000241061
  H         0.0004887225       -0.0007281763       -0.0001479801
  H        -0.0001850291       -0.0014958326       -0.0002572827
  O         0.0002289466       -0.0000649702        0.0002572496
  H        -0.0013342898        0.0004228267        0.0005282730
  H        -0.0003975255       -0.0000026814       -0.0000371327
  O         0.0002617244        0.0000198664       -0.0000320141
  H         0.0003595868       -0.0007048133        0.0004668027
  H        -0.0010193833       -0.0006507573        0.0004959568
  O         0.0002233167       -0.0000095360        0.0001387583
  H        -0.0002875441        0.0007262727       -0.0007381685
  H        -0.0006987036        0.0001000585        0.0000527955
  O        -0.0000385935        0.0000515451       -0.0000378096
  H         0.0008639029       -0.0001163354       -0.0017491404
  H        -0.0012109335       -0.0000624446        0.0009900037
  O         0.0002049361        0.0004456875       -0.0000196184
  H        -0.0005851494        0.0011227166       -0.0013076952
  H         0.0004366148        0.0015209215        0.0000899319
  O         0.0002806369        0.0000892244       -0.0000513191
  H         0.0002297418       -0.0007647039       -0.0000392814
  H         0.0004475605       -0.0000084434       -0.0005563232
  O        -0.0001136670        0.0000879150       -0.0000166522
  H        -0.0018373835        0.0009197982        0.0004605268
  H         0.0000904084        0.0011414140       -0.0006359270
  O         0.0001671959        0.0001812196       -0.0000055914
  H         0.0013632037        0.0005410445        0.0002734933
  H        -0.0000955940       -0.0000807580       -0.0008186234
  O        -0.0000373031       -0.0001135456       -0.0001223128
  H        -0.0018244902        0.0005446899        0.0004691629
  H        -0.0003392572        0.0000671353        0.0010779007
  O        -0.0001273446       -0.0000413133        0.0000355116
  H         0.0000836598        0.0000403060       -0.0000708343
  H         0.0002171805       -0.0005083419       -0.0002993247
  O         0.0000413605        0.0001606767       -0.0000850298
  H         0.0008205881        0.0001867228        0.0009555963
  H         0.0008161232        0.0005629699       -0.0005012535
  O        -0.0001494895        0.0000879546       -0.0002078864
  H        -0.0002261443       -0.0011056507       -0.0011986482
  H        -0.0012806504       -0.0002238094       -0.0007152744
  O         0.0003234246       -0.0001667713       -0.0001552881
  H        -0.0003768465        0.0002117553        0.0008845371
  H         0.0002029152       -0.0000814531        0.0004089952